% Model:              mesh example.mph      
% Version:            COMSOL 5.6.0.401      
% Date:               Nov 1 2021, 15:45     
% Dimension:          3                     
% Nodes:                  1204              
% Elements:                5484             
% Expressions:        0                     
% Description:                              
% Length unit:        mm                    
% Coordinates
-2.497229236367423       -4.331715672000046       -10                      
-1.645768936070614       -4.721381641962975       -8.267445116877992       
0                        -5                       -10                      
-0.720357362477142       -2.647667600229973       -10                      
-3.141090617264176       -0.8297668597299332      -10                      
-2.444308786217467       -2.09585451515587        -10                      
-2.785219967260378       -1.240677617897675       -8.930110777538287       
-4.331715592581116       -2.497229374122883       -10                      
-4.732612971947477       -1.613187669725525       -8.322164630457365       
-5                       0                        -10                      
2.280766253003767        -2.281935736501573       -10                      
4.331714887482751        -2.497230597145092       -10                      
3.544918166833122        -3.526124670294076       -7.853874356487021       
2.497228200679252        -4.331716269095943       -10                      
3.048369818627306        -1.018412617286899       -10                      
4.719367782209729        -1.651534963674954       -8.262420122586827       
5                        0                        -10                      
2.017380190853009        -2.519746966301053       -7.702813839433806       
1.605902636601136        -4.735089938085393       -8.329827692322082       
1.013425361183531        -3.059191221853527       -10                      
3.817932524317986        0.3582837951008031       -8.752940460188761       
-2.317156807122676       -2.641594905466666       -8.259878630641122       
-3.536740173431935       -3.534327226733914       -7.849514195733967       
0                        -5                       -7.507377686536526       
-0.5779633605988588      -3.117375452135503       -7.909599219629293       
2.635865048635972        0.7165675902016062       -10                      
-1.00289947049894        -1.494269399864535       -8.597570700403553       
1.026809883807398        -1.033730715530359       -10                      
-1.434710116659738       -0.378845106726847       -10                      
-1.885682239701336       -4.630788538777705       -6.29688118854155        
-3.499659413931494       -3.571048023547243       -5.179399941078872       
-2.285624986748157       -2.454006058214296       -5.787161866506435       
-1.86351746230293        -4.639752436034928       -3.846711183204843       
-2.128506183560962       0.1947964867670375       -8.692603390463372       
-3.172939124942934       0.6382481476499895       -10                      
-1.965510912130973       1.912915408021587        -10                      
-2.922481698628525       -1.266883565503204       -7.282929905533132       
-3.484679396235594       0.1332599303003171       -8.246716561181776       
-4.646648779549321       -1.846254348542692       -6.216466753888949       
-5                       0                        -7.507377686536526       
-4.714725570805194       1.664741058542032        -8.226410947691202       
-4.331715481792998       2.497229566289497        -10                      
0.2449211074364483       -3.256684631154016       -6.278681109624434       
0                        -5.000000000000001       -5.005608896868275       
1.813280288677815        -4.659615283979193       -6.247160854221486       
0.2979411021226803       -3.636671767445534       -3.939047590122882       
2.091592134494824        -2.159311776889048       -6.146595266336167       
0                        -4.999999999999999       -2.502804448346488       
1.792383202372171        -4.667693483494187       -3.788002573305468       
3.429681675324307        -3.638307794283581       -5.224742071565705       
4.33171597161116         2.497228716679301        -9.999999999999998       
4.731499676649899        1.616450064141139        -8.319296646019252       
2.727746897827066        -0.6883035512703597      -7.78000403780196        
4.629666064141443        -1.888436425865874       -6.291092330302683       
5                        0                        -7.505880920377521       
-2.905109684829936       -2.274650348017248       -4.199175984036803       
-3.421542772603891       -3.645962843371017       -2.584464791027683       
-2.63302333400254        -1.160558923454668       -5.238094261487406       
-1.509398720083559       -3.189439386139277       -2.415593598351105       
-1.812920974316597       -4.659755094517625       -1.325079694561449       
-3.429692438125008       -3.638297648608224       -0.1078806681026098      
-4.617945813514747       -1.916918481167527       -3.827378249921607       
-2.757049429970826       -2.109095232558539       -1.661189022730904       
-4.587378980019019       -1.988958042211971       -1.334397409228283       
2.974504525048259        -1.335906428197888       -5.243689854200597       
0.4898422148728966       -1.513369262308031       -7.551753322380591       
0.8277507079552539       -1.70733558074839        -5.214735056144141       
2.88754048828138         1.418774073247391        -7.935524984199922       
2.120903531263459        2.40974346746982         -10                      
1.780604470642594        -0.08816379677988896     -6.18927837148877        
-1.071590559564821       -1.33696409288135        -6.394923791933999       
-2.031067159042827       2.332951955724257        -8.22767705692508        
-2.497228716679301       4.33171597161116         -9.999999999999998       
0.351081949938969        1.381103372831527        -10                      
1.043267719603811        0.9530215829559457       -7.69484437991381        
-0.7662776828369388      0.1150213261531323       -7.585400226562147       
-0.460964806109056       1.567006745187614        -8.775876661190296       
-0.6415396433334106      3.132272390220827        -10                      
0.8131278000874747       3.126591717314422        -10                      
-0.9381594589819935      -2.262651530606071       -4.494479555215931       
-2.374233251121466       0.8485968778897479       -6.664958796226191       
-3.687116625560733       0.424298438944874        -5.835283846547234       
-3.655279977864189       -0.4891263362436267      -4.112280461931504       
-5.000000000000001       0                        -5.005608896868275       
-2.177928267554074       0.3415748063104183       -4.526362868400143       
-4.630456052358198       1.886498541525895        -6.221628072472629       
-3.558434999246114       3.512483502614682        -7.843078589980416       
-1.615086170612384       4.731965412119643        -8.321279848372734       
0                        5                        -10                      
1.353164598583478        2.968263476290682        -7.892984261744353       
2.497229566289497        4.331715481792998        -10                      
1.662747897254096        4.715428870227721        -8.234215201108114       
-4.999999999999999       0                        -2.502804448346488       
-1.479440649454224       -3.201248303100773       0.09623322411359743      
-1.803601321044258       -4.66337026995792        1.176942461724561        
0                        -5                       0                        
-1.727167262758206       -3.057454908554104       1.853081388670938        
-1.824830202073546       -4.655104159264347       3.611537600159621        
0                        -5.000000000000001       2.502804448346492        
-3.454334525516412       -3.614909817108209       2.456162777341877        
0.5899215031039307       -2.241017927233742       -2.826905738362305       
2.136129284418253        -2.474139660495743       -4.006049382166954       
0.5119868084039746       -3.230505716123778       -0.3601505979377617      
2.047947233615898        -2.922022864495114       -1.440602391751047       
1.844093317114148        -4.647506841068117       -1.318311978012928       
3.5023243642191          -3.568434397294881       -2.526020539760244       
4.617171214481982        -1.918783462550944       -3.905835840861287       
1.827039341719592        -4.654237557732613       1.205987051607942        
3.496879017877599        3.573770716530008        -7.840758121467945       
4.999999999999999        0                        -5.002610140881569       
4.643553019671551        1.854026794169707        -6.131356862563775       
3.313075091453516        0.5358372735462822       -5.507393503864272       
3.480772919079167        -0.7090338606823838      -3.300794820346811       
-1.973353610718287       -1.07311917077144        -2.886440546076021       
-0.8519329804728771      -1.647678923080255       -0.8393226356018294      
0.3642773620236697       -0.4031145943570301      -2.012651630755794       
-2.662087276196741       -1.85942236361061        0.4393322446685013       
-4.628805889417568       -1.890543847175524       3.710530210796565        
-3.161246646728277       -1.888991209774299       2.468881416264267        
-3.542692120790139       -3.528361168771057       5.07723902568029         
-4.595326030698349       -1.970527510994493       1.209681443857596        
-3.445784670217034       -0.4828685182754838      -1.160537335204721       
-1.999437643220568       -0.4101846602725046      -0.9115880744187043      
-5                       0                        0                        
2.316987631266826        -0.4723194201797517      -2.240075505769735       
1.372851227919309        -0.2995185808822606      -4.038234554385012       
-0.03622365458596412     0.1218986865590676       -5.464345678097486       
2.113842932155253        2.242214986999896        -6.383484586501119       
1.519401464339172        1.422312944851817        -5.320602914906511       
-0.9537899744023718      1.436017569404333        -5.893340958984918       
-2.096623405954681       2.752988503426927        -6.455354113850158       
-0.1735898327574558      2.875932435235486        -6.827055285272184       
0                        5.000000000000001        -7.505033634471662       
-0.4921799555756614      0.2115319268970009       -3.376103362054732       
-2.729242025854513       0.8740322104385312       -2.696115988166524       
-3.176644626731903       1.8651035388007          -5.018129773892754       
-4.608336453877749       1.939905958509703        -3.84226169071098        
-1.717854263548999       1.932342863249746        -4.006236200964816       
-3.482664666276639       3.587624119423358        -5.151743742318904       
-1.819013560787897       4.657380128964108        -6.245749431474125       
1.865560499691748        4.638931344823921        -6.21486207704186        
-4.582222728444659       2.000808553291691        -1.381829848540765       
-5.000000000000001       0                        2.502804448346492        
-2.203823112256246       -2.821136255871935       6.601820624948783        
-3.51106939755036        -3.559830288874086       7.778776590734035        
-4.641281383361202       -1.85970619197354        6.189752636188701        
-1.839168305341011       -4.649458026977884       6.075099424044663        
-1.657369063299559       -4.717322099244181       8.196463498500028        
0                        -5.000000000000001       7.507377686538433        
0                        -5                       10                       
-0.4824206501545584      -3.185280166145938       9.999999999999998        
0.8516201025491736       -3.192835375478266       10                       
-2.497230268735764       -4.331715076817773       10                       
-2.791041061906201       -1.885916352411824       8.164081927144121        
-4.331715890284125       -2.49722885774449        9.999999999999996        
-4.717128020090049       -1.657921361850835       8.201761630070967        
0                        -5                       5.005608896869113        
-0.9124151010367729      -3.577552079632173       4.932171024297088        
1.023973616807949        -1.461011432247557       -0.7203011958755234      
0                        -2.5                     1.25                     
-0.8860387528187426      -1.461959159794358       1.950055785060204        
-0.4562075505183865      -3.038776039816086       3.091085512148544        
1.817372266052782        -4.658020829341811       3.599874789850869        
0.874657343094511        -3.528590377930121       2.511796559653949        
1.641560174468596        -4.722846619740961       8.255852304976527        
-1.727167262758206       -1.807454908554104       3.728081388670939        
-3.363583631379103       -0.9037274542770521      4.366845142770026        
-5                       0                        5.005608896869113        
-3.493512930607307       0.9211966946507247       2.523888535105374        
-2.610340096682757       -0.4431291069516898      3.125984961888157        
2.702482677471475        -1.774642833808716       -1.417982893482564       
1.96652449039638         -2.328274037055253       0.6667280946036799       
3.500012262986437        -3.570702194099161       -0.008718500124605453    
3.786560694831664        0                        -1.249669680790851       
4.611391764118393        -1.932631883681178       -1.421230093865451       
5                        0                        -2.499339361581701       
1.829456699452426        -4.653287889742975       6.084084609310342        
2.277784103273907        -2.935176930608842       6.596547857049465        
3.413864484857489        -3.653153333632288       2.517608344643522        
3.432177551056018        3.635953418022171        -5.027613348443495       
4.63879859234587         1.86589057011658         -3.882027751252947       
2.727342147827165        1.471367602846625        -3.182047405490598       
2.573121389663329        0                        0                        
0                        0                        0                        
2.175725593251218        1.097747107587834        -1.262554627720276       
0.6951642109833529       1.071664096854431        -2.230853050024416       
-1.043562776857034       0.3654502832180859       -1.660887605478123       
-2.562957713855332       0.09139266707521256      1.173857775204328        
-2.31055000257307        1.243260150278759        -0.3669747833161191      
-4.570764460744153       2.026847859213468        1.14046848517779         
0.531250064715748        2.559406264655806        -4.252001981877441       
-0.8614166005528043      3.421854268037752        -4.407771978163471       
0                        5                        -5.000912481014062       
-1.363575135905934       2.315259587186037        -1.899911655387455       
-3.411925470773479       3.654964374913546        -2.525756305864577       
-1.331515064143093       3.4366976382263          -2.853288241022285       
-1.801613527733382       4.664138580347723        -3.799260744388131       
1.841089199809955        4.648697727142855        -3.920539886913761       
-3.366768587282503       3.69660239675405         -0.006018741503972692    
3.512450056431285        -3.558468013215219       5.066693489881652        
3.535114797279161        -3.535952964910296       7.796490329857511        
2.497228868775421        -4.331715883924562       10                       
0                        1.670130447174841        1.511950261762977        
-4.581334857575949       2.002840713276907        3.673958967198017        
-1.987025861214613       1.842393389301449        2.544972621864255        
-3.380801683432318       3.683772519754878        2.499686780718063        
0                        -2.5                     6.252804448434556        
1.058964679040348        -2.405856902875939       8.244461846573227        
2.086236300233059        -2.123771696004929       10                       
-5.000000000000001       0                        7.507377686538433        
-2.290667428787974       1.001420356638454        4.336979483599009        
-2.5                     0                        6.252804448434556        
-1.25                    -1.25                    6.252804448434556        
-0.9892491464667534      -2.265913817491444       8.245237476898295        
-2.022077451219209       -0.5008574402666316      7.935162604274891        
0.483347601261053        -1.502103140343189       10                       
-1.729908207444706       -1.727822685945626       10                       
-3.178329338545225       -0.4865887592653602      10                       
-4.637486722297033       1.869148710113434        6.219110417944369        
-5                       0                        10                       
-3.185870464741014       0.8574202137763161       10                       
-4.715238751316377       1.663286962037632        8.200624428069478        
-2.915468665350213       2.302121895248998        6.594146774574213        
-3.514080264988538       3.556858148874943        5.061891324931148        
0.9086861330263911       -2.329010414670905       4.299937394925435        
1.67987421571687         0                        1.491998394119357        
0                        0                        2.5                      
1.749314686189022        -2.057180755860243       2.520788670961406        
2.879050946023763        -1.987947778753652       8.163689503436059        
1.257732674806795        -1.25                    6.227596770620566        
0                        0                        5.000000000000001        
1.190788805521553        1.197471670564994        2.999859627454145        
4.720348223328862        1.64873061793492         -1.772807492670514       
3.378880102987191        1.185689333615246        0                        
3.389893692160239        -1.286250440120975       1.034344350181194        
3.235076972434836        0                        1.476230919609516        
4.596940322704883        -1.966758670882096       1.065281713962274        
5                        0                        0                        
4.637065802395593        -1.870192702438258       6.215870133742755        
2.983837219717705        -1.77923400660761        4.394170341273282        
4.578017038028678        -2.010412892795689       3.653143728834822        
1.184146126186882        3.019621788798664        -1.781170709624163       
3.44271337131361         3.625979128866916        -2.212889774714362       
2.949164381870833        2.3292632779138          -1.134607778913324       
2.0863574839588          2.082401267401385        0                        
3.385310001509493        1.767762390628889        1.81487284112489         
0                        2.57480485613425         0                        
-1.683384293641251       2.683366421964446        0.7529657601295019       
0                        3.283407495411724        1.476935867816018        
0                        5                        -2.496791327662347       
-0.1998024951413855      3.664927455413529        -1.181579456828991       
1.187018219015818        3.376029423504442        0                        
-1.811330199982012       4.660373687445366        -1.324407829375586       
1.661071590074901        4.716019632343153        -1.812323075854295       
-1.79063812922252        4.668363213180234        1.137503483654929        
4.714983741930996        -1.664009709504839       8.200976782654843        
3.371584414540175        -1.223521253356394       10                       
4.331715080742558        -2.49723026192806        10                       
2.544465936727875        0                        8.326194517054544        
1.692655000754746        2.525584943020307        1.645904354470454        
2.575709996155452        0                        9.999999999999998        
0                        2.48716822198018         3.745172526016411        
-1.757040132494269       3.022013185427562        4.40353192547378         
-1.814399056079449       4.659179763144796        3.567135740084414        
0                        0                        7.5                      
-2.423793978790446       1.080519527264853        8.234253028443193        
-1.25                    1.254361901002197        6.111502375061141        
-1.136692298615935       -0.2365784755637504      9.002587741871665        
0                        0                        10                       
1.272232968363938        1.269254332627197        8.218709413077397        
-1.506912464954062       0.4984728951554986       10                       
-3.535121226154282       3.5359465375474          7.796080045623561        
-4.331715066061029       2.497230287393776        9.999999999999998        
-1.97963892868825        2.884966520698295        8.190900375817622        
-2.133714131423779       2.094771283246106        10                       
0                        2.508723802004394        5.970200301687725        
-1.829594785583546       4.653233598323375        6.067967508850538        
0                        5.000000000000001        2.496791327662141        
1.645610393910796        4.721436903258663        1.736190243425781        
2.381577611043106        2.394943341129987        3.499719254908292        
2.455224383004126        0                        3.721647192664912        
2.51546534961359         0                        6.202389092806577        
1.510869211968017        1.689820835185209        4.847560182109762        
5                        0                        7.505880920377925        
4.3302130222588          2.499839324174431        0                        
4.732641478630944        1.613104037172406        1.675154278953271        
6.361039126007944        1.519713327690229        0                        
5.000000000000001        0                        2.49933936158189         
6.64563465522814         0                        1.635821229308963        
7.29754108871178         0                        0                        
4.649843748391051        1.838192893999066        3.78596440822895         
5                        0                        5.002610140881627        
2.496753365724973        4.331993329998186        0                        
3.535543030584149        3.535524781257777        2.153514762640265        
3.094387931020091        5.264691750553999        2.315444264246976        
0                        5.000000000000001        0                        
2.376526321669163        2.399980263773509        6.316183687790198        
3.034953194282069        1.772799313272411        8.056319072729311        
5                        0                        10                       
3.379573088976983        1.201026863527785        10                       
1.879807639094597        4.633176366166261        3.786489187076738        
2.054108527567847        2.129586313082745        10                       
1.465783617191932        2.992942761903601        8.207967708762595        
0                        6.573539105802412        1.756398644562788        
1.855788732651378        4.642849144627057        6.129055601227352        
0                        5                        5.000912481014098        
0                        6.699305371804138        3.771743023703594        
0                        2.538508665254394        8.111224309100248        
-1.642420791664611       4.722547399773537        8.255398527417965        
1.19050546621544         3.380824719178065        10                       
0                        2.575709996155466        9.999999999999998        
-2.497228847911126       4.331715895953267        10                       
-1.239874636528034       3.371422447424661        10                       
0                        5                        7.505033634471785        
1.169742112597494        6.812028257984276        2.731073892834892        
2.67010299501014         6.743857276624459        2.811707648524568        
2.224619847430114        6.408172703643499        0                        
9.721758372878574        0                        0                        
8.35665030730642         1.911295154759321        0                        
8.481336894969916        0                        1.831380306231831        
10.80466020722535        0                        1.964506980775976        
9.202526100570875        2.145701168340077        1.911173173839912        
9.247419388950169        0                        3.871809605945468        
7.445177433331994        2.126851171004522        1.707845076557958        
6.987930355907659        0                        3.453579381119599        
3.545718539794522        3.525319848830374        4.94836257480884         
4.645839183221953        1.848290638303289        6.121801060742759        
5.3556751557297          3.167420916366533        4.380072847816685        
4.719426210082254        1.651367992783152        8.221129021254619        
6.127030037295735        1.443524410942059        7.158390725374653        
7.544881955066069        0                        5.692767251204533        
7.302365564280182        0                        8.086913064033421        
6.4342665176461          1.56442045675788         10                       
7.293415803114378        0                        10                       
10.92297440646909        2.083241099348914        0                        
5.729744170493722        3.568849668160094        2.087577139476635        
4.876399138370829        5.581212569657939        0                        
6.677015397677081        3.644308922726265        0                        
9.062868265459498        1.360307958306461        5.396812767708215        
10.00026962407537        0                        5.8781131642256          
11.85340797571817        0                        4.057982245871036        
9.200667537664657        0                        7.296457862382781        
6.698564672411628        2.244736014473057        3.503138772929061        
8.673795755216148        1.644557142599954        7.668027771863223        
5.95195191149126         2.362620857941591        5.298432469300164        
12.29026989813515        0                        0                        
10.95987476780975        2.164551165675633        2.114501271121867        
13.34646178767953        0                        2.283918824587214        
8.529315740656044        2.733989014318814        3.415690153115916        
3.589234779588731        7.340589716825892        2.122224277663598        
4.744295952477907        5.662686382864276        1.865317982776658        
5.235667840861556        7.111082217246472        1.243545321851105        
4.542178871354309        5.731845253476215        3.741340499412061        
1.358300244178229        8.137600992060069        1.676150290412081        
0                        7.630570095945226        0                        
3.525440451836264        3.545598626544821        7.786443628404078        
4.331716031570831        2.497228612676707        10                       
2.902371766106854        6.087308378769181        5.383593524474729        
2.186607230602271        6.945295162864054        4.303990706749807        
3.922794991132764        5.295102478572211        6.512036691948027        
3.033842355532958        6.432609461864102        6.871353476165973        
3.367436245960068        7.173815349839857        5.920639955508138        
1.664369263980354        6.24951077962484         7.221049379279277        
1.659334266019926        4.716631191180005        8.197226004447794        
2.497229043740347        4.331715783053609        10                       
0                        8.971979118917716        2.451340693165362        
0                        6.683970906305265        6.138423934792968        
0                        8.296175941325039        4.957097104029475        
0                        5                        10                       
0                        6.564313324479364        8.219385820556225        
2.143948271096627        8.488298792624356        2.939338650271049        
3.697925729028915        8.438752857008595        3.167543392359562        
4.079323420333495        7.786498920037972        0                        
2.393276362901772        9.026732427921431        0                        
1.824058919587891        9.944190028325581        1.764503180714789        
6.104627021564253        7.855461210292861        0                        
7.434965576021039        6.186240932222276        0                        
9.032374178382538        3.659564655959637        1.707845076557958        
9.535432616109034        4.58514029760046         0                        
7.757930478351678        4.417427984718609        3.888890398409063        
6.061506563068347        4.496648938734001        4.97418128740442         
5.641428922691831        3.975650640652145        6.514313569813452        
6.431566979574283        2.652421564934875        8.579195362687328        
7.25406007459147         2.887048821884118        6.81090053037138         
5.282022416749211        4.803425288750572        8.257156784906726        
12.31926235542381        2.100541674113334        3.436954015705864        
9.718513416782713        0                        10                       
11.13570969322161        0                        7.862706047717958        
10.4989953295913         1.962903502732473        7.681353023858979        